REMARK SMILES CC[C@@H]1CN(C(=O)NCC(F)(F)F)C[C@@H]1c1cnc2cnc3[nH]ccc3n12
REMARK SMILES IDX 6 1 7 2 8 3 5 5 3 6 4 7 15 8 14 9 2 10 1 11 16 12 17 13
REMARK SMILES IDX 27 14 18 15 19 16 26 17 20 18 22 19 25 20 21 21 23 22 24 23
REMARK SMILES IDX 9 25 10 26 11 27 12 28 13 29
REMARK H PARENT 8 4 23 24
ROOT
ATOM      1  C   UNL     1       3.285   0.703  -0.208  1.00  0.00     0.317 C 
ATOM      2  O   UNL     1       3.811   1.749  -0.574  1.00  0.00    -0.249 OA
ATOM      3  N   UNL     1       3.995  -0.460  -0.074  1.00  0.00    -0.329 N 
ATOM      4  H   UNL     1       3.475  -1.299  -0.282  1.00  0.00     0.165 HD
ENDROOT
BRANCH   1   5
ATOM      5  N   UNL     1       1.958   0.610   0.121  1.00  0.00    -0.324 N 
ATOM      6  C   UNL     1      -0.118   1.416   0.930  1.00  0.00     0.019 C 
ATOM      7  C   UNL     1       1.111   1.792   0.096  1.00  0.00     0.125 C 
ATOM      8  C   UNL     1      -0.225  -0.114   0.745  1.00  0.00     0.062 C 
ATOM      9  C   UNL     1       1.259  -0.526   0.712  1.00  0.00     0.131 C 
BRANCH   6  10
ATOM     10  C   UNL     1      -1.371   2.233   0.604  1.00  0.00     0.003 C 
ATOM     11  C   UNL     1      -1.201   3.713   0.923  1.00  0.00     0.004 C 
ENDBRANCH   6  10
BRANCH   8  12
ATOM     12  C   UNL     1      -0.962  -0.539  -0.494  1.00  0.00     0.048 A 
ATOM     13  C   UNL     1      -0.551  -0.608  -1.820  1.00  0.00     0.136 A 
ATOM     14  N   UNL     1      -2.272  -0.967  -0.535  1.00  0.00    -0.292 N 
ATOM     15  N   UNL     1      -1.540  -1.077  -2.647  1.00  0.00    -0.235 NA
ATOM     16  C   UNL     1      -2.561  -1.284  -1.846  1.00  0.00     0.156 A 
ATOM     17  C   UNL     1      -3.299  -1.129   0.414  1.00  0.00     0.092 A 
ATOM     18  C   UNL     1      -3.874  -1.778  -2.213  1.00  0.00     0.161 A 
ATOM     19  C   UNL     1      -4.501  -1.607  -0.072  1.00  0.00     0.154 A 
ATOM     20  C   UNL     1      -3.417  -0.906   1.794  1.00  0.00     0.048 A 
ATOM     21  N   UNL     1      -4.844  -1.946  -1.345  1.00  0.00    -0.233 NA
ATOM     22  N   UNL     1      -5.358  -1.690   0.990  1.00  0.00    -0.345 N 
ATOM     23  C   UNL     1      -4.710  -1.266   2.129  1.00  0.00     0.086 A 
ATOM     24  H   UNL     1      -6.315  -2.010   0.926  1.00  0.00     0.168 HD
ENDBRANCH   8  12
ENDBRANCH   1   5
BRANCH   3  25
ATOM     25  C   UNL     1       5.411  -0.480  -0.450  1.00  0.00     0.233 C 
BRANCH  25  26
ATOM     26  C   UNL     1       6.149  -1.754  -0.058  1.00  0.00     0.405 C 
ATOM     27  F   UNL     1       5.531  -2.843  -0.576  1.00  0.00    -0.169 F 
ATOM     28  F   UNL     1       7.418  -1.746  -0.519  1.00  0.00    -0.169 F 
ATOM     29  F   UNL     1       6.198  -1.913   1.283  1.00  0.00    -0.169 F 
ENDBRANCH  25  26
ENDBRANCH   3  25
TORSDOF 5
